
Host: elizabeth

Timers On : Wed Aug  1 11:52:42 2018
Timers Off: Wed Aug  1 11:52:42 2018

Wall Time:        0.30 seconds


-----------------------------------------------------------

***********************************************************

Host: elizabeth

Timers On : Wed Aug  1 11:53:57 2018
Timers Off: Wed Aug  1 11:53:57 2018

Wall Time:        0.31 seconds


-----------------------------------------------------------

***********************************************************

Host: elizabeth

Timers On : Wed Aug  1 11:54:08 2018
Timers Off: Wed Aug  1 11:54:08 2018

Wall Time:        0.31 seconds


-----------------------------------------------------------

***********************************************************

Host: elizabeth

Timers On : Wed Aug  1 11:54:36 2018
Timers Off: Wed Aug  1 11:54:36 2018

Wall Time:        0.35 seconds


-----------------------------------------------------------

***********************************************************

Host: elizabeth

Timers On : Wed Aug  1 11:55:22 2018
Timers Off: Wed Aug  1 11:55:22 2018

Wall Time:        0.36 seconds


-----------------------------------------------------------

***********************************************************

Host: elizabeth

Timers On : Wed Aug  1 11:56:54 2018
Timers Off: Wed Aug  1 11:56:54 2018

Wall Time:        0.35 seconds


-----------------------------------------------------------

***********************************************************

Host: elizabeth

Timers On : Wed Aug  1 11:57:14 2018
Timers Off: Wed Aug  1 11:57:14 2018

Wall Time:        0.35 seconds


-----------------------------------------------------------

***********************************************************

Host: elizabeth

Timers On : Wed Aug  1 12:50:27 2018
Timers Off: Wed Aug  1 12:50:27 2018

Wall Time:        0.38 seconds


-----------------------------------------------------------

***********************************************************

Host: elizabeth

Timers On : Wed Aug  1 12:53:35 2018
Timers Off: Wed Aug  1 12:53:36 2018

Wall Time:        0.29 seconds


-----------------------------------------------------------

***********************************************************

Host: elizabeth

Timers On : Wed Aug  1 12:53:46 2018
Timers Off: Wed Aug  1 12:53:46 2018

Wall Time:        0.29 seconds


-----------------------------------------------------------

***********************************************************

Host: elizabeth

Timers On : Wed Aug  1 12:53:58 2018
Timers Off: Wed Aug  1 12:53:58 2018

Wall Time:        0.36 seconds


-----------------------------------------------------------

***********************************************************

Host: elizabeth

Timers On : Thu Aug  2 13:58:43 2018
Timers Off: Thu Aug  2 13:58:44 2018

Wall Time:        0.43 seconds


-----------------------------------------------------------

***********************************************************

Host: elizabeth

Timers On : Thu Aug  2 13:59:31 2018
Timers Off: Thu Aug  2 13:59:31 2018

Wall Time:        0.39 seconds


-----------------------------------------------------------

***********************************************************

Host: elizabeth

Timers On : Thu Aug  2 14:00:29 2018
Timers Off: Thu Aug  2 14:00:29 2018

Wall Time:        0.44 seconds


-----------------------------------------------------------

***********************************************************

Host: elizabeth

Timers On : Thu Aug  2 14:00:39 2018
Timers Off: Thu Aug  2 14:00:40 2018

Wall Time:        0.43 seconds


-----------------------------------------------------------

***********************************************************

Host: elizabeth

Timers On : Thu Aug  2 14:01:14 2018
Timers Off: Thu Aug  2 14:01:15 2018

Wall Time:        0.38 seconds


-----------------------------------------------------------

***********************************************************

Host: elizabeth

Timers On : Thu Aug  2 14:01:39 2018
Timers Off: Thu Aug  2 14:01:40 2018

Wall Time:        0.46 seconds


-----------------------------------------------------------

***********************************************************

Host: elizabeth

Timers On : Thu Aug  2 14:02:04 2018
Timers Off: Thu Aug  2 14:02:04 2018

Wall Time:        0.44 seconds


-----------------------------------------------------------

***********************************************************

Host: elizabeth

Timers On : Thu Aug  2 14:02:22 2018
Timers Off: Thu Aug  2 14:02:22 2018

Wall Time:        0.39 seconds


-----------------------------------------------------------

***********************************************************

Host: elizabeth

Timers On : Thu Aug  2 14:03:00 2018
Timers Off: Thu Aug  2 14:03:00 2018

Wall Time:        0.48 seconds


-----------------------------------------------------------

***********************************************************

Host: elizabeth

Timers On : Thu Aug  2 14:03:41 2018
Timers Off: Thu Aug  2 14:03:41 2018

Wall Time:        0.52 seconds


-----------------------------------------------------------

***********************************************************

Host: elizabeth

Timers On : Thu Aug  2 14:04:04 2018
Timers Off: Thu Aug  2 14:04:05 2018

Wall Time:        0.43 seconds


-----------------------------------------------------------

***********************************************************

Host: elizabeth

Timers On : Thu Aug  2 14:04:21 2018
Timers Off: Thu Aug  2 14:04:21 2018

Wall Time:        0.50 seconds


-----------------------------------------------------------

***********************************************************

Host: elizabeth

Timers On : Thu Aug  2 14:05:38 2018
Timers Off: Thu Aug  2 14:05:38 2018

Wall Time:        0.42 seconds


-----------------------------------------------------------

***********************************************************

Host: elizabeth

Timers On : Thu Aug  2 14:05:59 2018
Timers Off: Thu Aug  2 14:05:59 2018

Wall Time:        0.45 seconds


-----------------------------------------------------------

***********************************************************

Host: elizabeth

Timers On : Thu Aug  2 14:07:00 2018
Timers Off: Thu Aug  2 14:07:00 2018

Wall Time:        0.44 seconds


-----------------------------------------------------------

***********************************************************

Host: elizabeth

Timers On : Thu Aug  2 14:18:38 2018
Timers Off: Thu Aug  2 14:18:48 2018

Wall Time:        9.26 seconds


-----------------------------------------------------------

***********************************************************

Host: elizabeth

Timers On : Thu Aug  2 14:20:38 2018
Timers Off: Thu Aug  2 14:20:57 2018

Wall Time:       18.77 seconds


-----------------------------------------------------------

***********************************************************

Host: elizabeth

Timers On : Thu Aug  2 14:22:31 2018
Timers Off: Thu Aug  2 14:22:38 2018

Wall Time:        6.90 seconds


-----------------------------------------------------------

***********************************************************

Host: elizabeth

Timers On : Thu Aug  2 14:23:02 2018
Timers Off: Thu Aug  2 14:23:04 2018

Wall Time:        1.59 seconds


-----------------------------------------------------------

***********************************************************

Host: elizabeth

Timers On : Thu Aug  2 14:23:19 2018
Timers Off: Thu Aug  2 14:23:21 2018

Wall Time:        1.81 seconds


-----------------------------------------------------------

***********************************************************

Host: elizabeth

Timers On : Thu Aug  2 14:23:57 2018
Timers Off: Thu Aug  2 14:23:59 2018

Wall Time:        2.22 seconds


-----------------------------------------------------------

***********************************************************

Host: elizabeth

Timers On : Thu Aug  2 14:24:24 2018
Timers Off: Thu Aug  2 14:24:28 2018

Wall Time:        4.20 seconds


-----------------------------------------------------------

***********************************************************

Host: elizabeth

Timers On : Thu Aug  2 14:25:33 2018
Timers Off: Thu Aug  2 14:25:43 2018

Wall Time:       10.26 seconds


-----------------------------------------------------------

***********************************************************

Host: elizabeth

Timers On : Thu Aug  2 14:26:17 2018
Timers Off: Thu Aug  2 14:26:20 2018

Wall Time:        2.80 seconds


-----------------------------------------------------------

***********************************************************

Host: elizabeth

Timers On : Thu Aug  2 14:26:50 2018
Timers Off: Thu Aug  2 14:26:51 2018

Wall Time:        0.58 seconds


-----------------------------------------------------------

***********************************************************

Host: elizabeth

Timers On : Thu Aug  2 14:28:37 2018
Timers Off: Thu Aug  2 14:28:42 2018

Wall Time:        4.98 seconds


-----------------------------------------------------------

***********************************************************

Host: elizabeth

Timers On : Thu Aug  2 14:30:06 2018
Timers Off: Thu Aug  2 14:30:07 2018

Wall Time:        0.45 seconds


-----------------------------------------------------------

***********************************************************

Host: elizabeth

Timers On : Thu Aug  2 14:30:23 2018
Timers Off: Thu Aug  2 14:30:25 2018

Wall Time:        2.02 seconds


-----------------------------------------------------------

***********************************************************

Host: elizabeth

Timers On : Thu Aug  2 14:31:23 2018
Timers Off: Thu Aug  2 14:31:30 2018

Wall Time:        6.28 seconds


-----------------------------------------------------------

***********************************************************

Host: elizabeth

Timers On : Thu Aug  2 14:32:33 2018
Timers Off: Thu Aug  2 14:32:34 2018

Wall Time:        0.94 seconds


-----------------------------------------------------------

***********************************************************

Host: elizabeth

Timers On : Thu Aug  2 14:33:08 2018
Timers Off: Thu Aug  2 14:33:09 2018

Wall Time:        1.73 seconds


-----------------------------------------------------------

***********************************************************

Host: elizabeth

Timers On : Thu Aug  2 14:33:29 2018
Timers Off: Thu Aug  2 14:33:33 2018

Wall Time:        3.40 seconds


-----------------------------------------------------------

***********************************************************

Host: elizabeth

Timers On : Thu Aug  2 14:33:58 2018
Timers Off: Thu Aug  2 14:33:59 2018

Wall Time:        1.13 seconds


-----------------------------------------------------------

***********************************************************

Host: elizabeth

Timers On : Thu Aug  2 14:34:45 2018
Timers Off: Thu Aug  2 14:34:46 2018

Wall Time:        1.34 seconds


-----------------------------------------------------------

***********************************************************

Host: elizabeth

Timers On : Thu Aug  2 14:35:03 2018
Timers Off: Thu Aug  2 14:35:04 2018

Wall Time:        1.22 seconds


-----------------------------------------------------------

***********************************************************

Host: elizabeth

Timers On : Thu Aug  2 14:37:52 2018
Timers Off: Thu Aug  2 14:37:53 2018

Wall Time:        0.96 seconds


-----------------------------------------------------------

***********************************************************

Host: elizabeth

Timers On : Thu Aug  2 14:39:29 2018
Timers Off: Thu Aug  2 14:39:30 2018

Wall Time:        0.90 seconds


-----------------------------------------------------------

***********************************************************

Host: elizabeth

Timers On : Thu Aug  2 14:41:38 2018
Timers Off: Thu Aug  2 14:41:39 2018

Wall Time:        0.96 seconds


-----------------------------------------------------------

***********************************************************

Host: elizabeth

Timers On : Thu Aug  2 14:53:14 2018
Timers Off: Thu Aug  2 14:53:15 2018

Wall Time:        0.89 seconds


-----------------------------------------------------------

***********************************************************

Host: elizabeth

Timers On : Thu Aug  2 14:57:22 2018
Timers Off: Thu Aug  2 14:57:23 2018

Wall Time:        0.95 seconds


-----------------------------------------------------------

***********************************************************

Host: elizabeth

Timers On : Thu Aug  2 14:57:54 2018
Timers Off: Thu Aug  2 14:57:54 2018

Wall Time:        0.75 seconds


-----------------------------------------------------------

***********************************************************

Host: elizabeth

Timers On : Thu Aug  2 14:58:38 2018
Timers Off: Thu Aug  2 14:58:39 2018

Wall Time:        0.66 seconds


-----------------------------------------------------------

***********************************************************

Host: elizabeth

Timers On : Thu Aug  2 15:00:16 2018
Timers Off: Thu Aug  2 15:00:17 2018

Wall Time:        0.56 seconds


-----------------------------------------------------------

***********************************************************

Host: elizabeth

Timers On : Thu Aug  2 15:00:44 2018
Timers Off: Thu Aug  2 15:00:44 2018

Wall Time:        0.48 seconds


-----------------------------------------------------------

***********************************************************

Host: elizabeth

Timers On : Thu Aug  2 15:01:25 2018
Timers Off: Thu Aug  2 15:01:25 2018

Wall Time:        0.51 seconds


-----------------------------------------------------------

***********************************************************

Host: elizabeth

Timers On : Thu Aug  2 15:06:31 2018
Timers Off: Thu Aug  2 15:06:31 2018

Wall Time:        0.45 seconds


-----------------------------------------------------------

***********************************************************

Host: elizabeth

Timers On : Thu Aug  2 15:13:00 2018
Timers Off: Thu Aug  2 15:13:00 2018

Wall Time:        0.51 seconds


-----------------------------------------------------------

***********************************************************

Host: elizabeth

Timers On : Thu Aug  2 15:14:02 2018
Timers Off: Thu Aug  2 15:14:03 2018

Wall Time:        0.44 seconds


-----------------------------------------------------------

***********************************************************

Host: elizabeth

Timers On : Thu Aug  2 15:30:07 2018
Timers Off: Thu Aug  2 15:30:07 2018

Wall Time:        0.49 seconds


-----------------------------------------------------------

***********************************************************

Host: elizabeth

Timers On : Thu Aug  2 15:31:05 2018
Timers Off: Thu Aug  2 15:31:06 2018

Wall Time:        0.59 seconds


-----------------------------------------------------------

***********************************************************

Host: elizabeth

Timers On : Thu Aug  2 15:32:29 2018
Timers Off: Thu Aug  2 15:32:30 2018

Wall Time:        0.45 seconds


-----------------------------------------------------------

***********************************************************

Host: elizabeth

Timers On : Thu Aug  2 15:33:39 2018
Timers Off: Thu Aug  2 15:33:39 2018

Wall Time:        0.48 seconds


-----------------------------------------------------------

***********************************************************

Host: elizabeth

Timers On : Thu Aug  2 15:34:33 2018
Timers Off: Thu Aug  2 15:34:34 2018

Wall Time:        0.41 seconds


-----------------------------------------------------------

***********************************************************

Host: elizabeth

Timers On : Thu Aug  2 15:34:46 2018
Timers Off: Thu Aug  2 15:34:46 2018

Wall Time:        0.41 seconds


-----------------------------------------------------------

***********************************************************

Host: elizabeth

Timers On : Thu Aug  2 15:35:15 2018
Timers Off: Thu Aug  2 15:35:15 2018

Wall Time:        0.57 seconds


-----------------------------------------------------------

***********************************************************

Host: elizabeth

Timers On : Thu Aug  2 15:36:33 2018
Timers Off: Thu Aug  2 15:36:33 2018

Wall Time:        0.83 seconds

Total PK formation time             :      0.033u      0.000s      0.014w      1 calls
HF: Form H                          :      0.000u      0.000s      0.001w      1 calls
HF: Form S/X                        :      0.000u      0.000s      0.000w      1 calls
HF: Guess                           :      0.067u      0.000s      0.050w      1 calls
SAD Guess                           :      0.067u      0.000s      0.047w      1 calls
HF: Form G                          :      0.000u      0.000s      0.000w      7 calls
JK: D                               :      0.000u      0.000s      0.000w      7 calls
JK: USO2AO                          :      0.000u      0.000s      0.000w      7 calls
JK: JK                              :      0.000u      0.000s      0.000w      7 calls
PK computes JK                      :      0.000u      0.000s      0.000w      7 calls
JK: AO2USO                          :      0.000u      0.000s      0.000w      7 calls
HF: Form F                          :      0.000u      0.000s      0.000w      7 calls
HF: DIIS                            :      0.000u      0.000s      0.000w      7 calls
DIISManager::add_entry              :      0.000u      0.000s      0.000w      6 calls
DIISManager::extrapolate            :      0.000u      0.000s      0.000w      5 calls
bMatrix setup                       :      0.000u      0.000s      0.000w      5 calls
bMatrix pseudoinverse               :      0.000u      0.000s      0.000w      5 calls
New vector                          :      0.000u      0.000s      0.000w      5 calls
HF: Form C                          :      0.000u      0.000s      0.000w      7 calls
HF: Form D                          :      0.000u      0.000s      0.000w      7 calls

-----------------------------------------------------------
Total PK formation time             :      0.033u      0.000s      0.014w      1 calls
HF: Form H                          :      0.000u      0.000s      0.001w      1 calls
HF: Form S/X                        :      0.000u      0.000s      0.000w      1 calls
HF: Guess                           :      0.067u      0.000s      0.050w      1 calls
| SAD Guess                         :      0.067u      0.000s      0.047w      1 calls
HF: Form G                          :      0.000u      0.000s      0.000w      7 calls
| JK: D                             :      0.000u      0.000s      0.000w      7 calls
| JK: USO2AO                        :      0.000u      0.000s      0.000w      7 calls
| JK: JK                            :      0.000u      0.000s      0.000w      7 calls
| | PK computes JK                  :      0.000u      0.000s      0.000w      7 calls
| JK: AO2USO                        :      0.000u      0.000s      0.000w      7 calls
HF: Form F                          :      0.000u      0.000s      0.000w      7 calls
HF: DIIS                            :      0.000u      0.000s      0.000w      7 calls
| DIISManager::add_entry            :      0.000u      0.000s      0.000w      6 calls
| DIISManager::extrapolate          :      0.000u      0.000s      0.000w      5 calls
| | bMatrix setup                   :      0.000u      0.000s      0.000w      5 calls
| | bMatrix pseudoinverse           :      0.000u      0.000s      0.000w      5 calls
| | New vector                      :      0.000u      0.000s      0.000w      5 calls
HF: Form C                          :      0.000u      0.000s      0.000w      7 calls
HF: Form D                          :      0.000u      0.000s      0.000w      7 calls

***********************************************************

Host: elizabeth

Timers On : Thu Aug  2 16:48:41 2018
Timers Off: Thu Aug  2 16:48:41 2018

Wall Time:        0.34 seconds


-----------------------------------------------------------

***********************************************************

Host: elizabeth

Timers On : Thu Aug  2 16:49:00 2018
Timers Off: Thu Aug  2 16:49:00 2018

Wall Time:        0.39 seconds


-----------------------------------------------------------

***********************************************************

Host: elizabeth

Timers On : Thu Aug  2 16:49:53 2018
Timers Off: Thu Aug  2 16:49:53 2018

Wall Time:        0.38 seconds


-----------------------------------------------------------

***********************************************************

Host: elizabeth

Timers On : Thu Aug  2 16:51:42 2018
Timers Off: Thu Aug  2 16:51:42 2018

Wall Time:        0.35 seconds


-----------------------------------------------------------

***********************************************************

Host: elizabeth

Timers On : Thu Aug  2 16:51:57 2018
Timers Off: Thu Aug  2 16:51:58 2018

Wall Time:        0.36 seconds


-----------------------------------------------------------

***********************************************************

Host: elizabeth

Timers On : Thu Aug  2 16:52:57 2018
Timers Off: Thu Aug  2 16:52:57 2018

Wall Time:        0.36 seconds


-----------------------------------------------------------

***********************************************************

Host: elizabeth

Timers On : Thu Aug  2 16:53:18 2018
Timers Off: Thu Aug  2 16:53:18 2018

Wall Time:        0.38 seconds


-----------------------------------------------------------

***********************************************************

Host: elizabeth

Timers On : Thu Aug  2 16:53:42 2018
Timers Off: Thu Aug  2 16:53:43 2018

Wall Time:        0.37 seconds


-----------------------------------------------------------

***********************************************************

Host: elizabeth

Timers On : Thu Aug  2 16:53:50 2018
Timers Off: Thu Aug  2 16:53:50 2018

Wall Time:        0.39 seconds


-----------------------------------------------------------

***********************************************************

Host: elizabeth

Timers On : Thu Aug  2 16:55:00 2018
Timers Off: Thu Aug  2 16:55:01 2018

Wall Time:        0.41 seconds


-----------------------------------------------------------

***********************************************************

Host: elizabeth

Timers On : Thu Aug  2 16:56:02 2018
Timers Off: Thu Aug  2 16:56:02 2018

Wall Time:        0.45 seconds


-----------------------------------------------------------

***********************************************************

Host: elizabeth

Timers On : Thu Aug  2 16:56:29 2018
Timers Off: Thu Aug  2 16:56:30 2018

Wall Time:        0.43 seconds


-----------------------------------------------------------

***********************************************************

Host: elizabeth

Timers On : Thu Aug  2 16:57:07 2018
Timers Off: Thu Aug  2 16:57:07 2018

Wall Time:        0.54 seconds


-----------------------------------------------------------

***********************************************************

Host: elizabeth

Timers On : Thu Aug  2 16:57:41 2018
Timers Off: Thu Aug  2 16:57:41 2018

Wall Time:        0.42 seconds


-----------------------------------------------------------

***********************************************************

Host: elizabeth

Timers On : Thu Aug  2 17:00:41 2018
Timers Off: Thu Aug  2 17:01:00 2018

Wall Time:       19.51 seconds


-----------------------------------------------------------

***********************************************************

Host: elizabeth

Timers On : Thu Aug  2 17:01:52 2018
Timers Off: Thu Aug  2 17:02:28 2018

Wall Time:       36.29 seconds


-----------------------------------------------------------

***********************************************************

Host: elizabeth

Timers On : Thu Aug  2 17:10:16 2018
Timers Off: Thu Aug  2 17:10:17 2018

Wall Time:        0.69 seconds


-----------------------------------------------------------

***********************************************************

Host: elizabeth

Timers On : Thu Aug  2 17:10:40 2018
Timers Off: Thu Aug  2 17:11:19 2018

Wall Time:       38.89 seconds


-----------------------------------------------------------

***********************************************************

Host: elizabeth

Timers On : Thu Aug  2 17:11:55 2018
Timers Off: Thu Aug  2 17:12:23 2018

Wall Time:       27.76 seconds


-----------------------------------------------------------

***********************************************************

Host: elizabeth

Timers On : Thu Aug  2 17:13:25 2018
Timers Off: Thu Aug  2 17:13:26 2018

Wall Time:        0.70 seconds

Total PK formation time             :      0.083u      0.000s      0.053w      1 calls
HF: Form H                          :      0.000u      0.000s      0.001w      1 calls
HF: Form S/X                        :      0.000u      0.000s      0.000w      1 calls
HF: Guess                           :      0.083u      0.000s      0.049w      1 calls
SAD Guess                           :      0.083u      0.000s      0.047w      1 calls
HF: Form G                          :      0.033u      0.000s      0.021w     24 calls
JK: D                               :      0.000u      0.000s      0.000w     24 calls
JK: USO2AO                          :      0.000u      0.000s      0.000w     24 calls
JK: JK                              :      0.033u      0.000s      0.020w     24 calls
PK computes JK                      :      0.033u      0.000s      0.020w     24 calls
JK: AO2USO                          :      0.000u      0.000s      0.001w     24 calls
HF: Form F                          :      0.000u      0.000s      0.000w     24 calls
HF: DIIS                            :      0.000u      0.000s      0.000w     24 calls
HF: Form C                          :      0.000u      0.000s      0.002w     24 calls
HF: Form D                          :      0.000u      0.000s      0.000w     24 calls

-----------------------------------------------------------
Total PK formation time             :      0.083u      0.000s      0.053w      1 calls
HF: Form H                          :      0.000u      0.000s      0.001w      1 calls
HF: Form S/X                        :      0.000u      0.000s      0.000w      1 calls
HF: Guess                           :      0.083u      0.000s      0.049w      1 calls
| SAD Guess                         :      0.083u      0.000s      0.047w      1 calls
HF: Form G                          :      0.033u      0.000s      0.021w     24 calls
| JK: D                             :      0.000u      0.000s      0.000w     24 calls
| JK: USO2AO                        :      0.000u      0.000s      0.000w     24 calls
| JK: JK                            :      0.033u      0.000s      0.020w     24 calls
| | PK computes JK                  :      0.033u      0.000s      0.020w     24 calls
| JK: AO2USO                        :      0.000u      0.000s      0.001w     24 calls
HF: Form F                          :      0.000u      0.000s      0.000w     24 calls
HF: DIIS                            :      0.000u      0.000s      0.000w     24 calls
HF: Form C                          :      0.000u      0.000s      0.002w     24 calls
HF: Form D                          :      0.000u      0.000s      0.000w     24 calls

***********************************************************

Host: elizabeth

Timers On : Thu Aug  2 17:14:09 2018
Timers Off: Thu Aug  2 17:14:40 2018

Wall Time:       31.02 seconds


-----------------------------------------------------------

***********************************************************

Host: elizabeth

Timers On : Thu Aug  2 17:16:59 2018
Timers Off: Thu Aug  2 17:17:05 2018

Wall Time:        5.86 seconds


-----------------------------------------------------------

***********************************************************

Host: elizabeth

Timers On : Thu Aug  2 17:18:23 2018
Timers Off: Thu Aug  2 17:18:48 2018

Wall Time:       25.56 seconds


-----------------------------------------------------------

***********************************************************

Host: elizabeth

Timers On : Thu Aug  2 17:19:39 2018
Timers Off: Thu Aug  2 17:19:39 2018

Wall Time:        0.28 seconds


-----------------------------------------------------------

***********************************************************

Host: elizabeth

Timers On : Thu Aug  2 17:27:00 2018
Timers Off: Thu Aug  2 17:27:01 2018

Wall Time:        0.45 seconds


-----------------------------------------------------------

***********************************************************

Host: elizabeth

Timers On : Thu Aug  2 17:27:21 2018
Timers Off: Thu Aug  2 17:27:22 2018

Wall Time:        0.99 seconds

Total PK formation time             :      0.383u      0.033s      0.244w      1 calls
HF: Form H                          :      0.000u      0.000s      0.001w      1 calls
HF: Form S/X                        :      0.000u      0.000s      0.000w      1 calls
HF: Guess                           :      0.083u      0.000s      0.047w      1 calls
SAD Guess                           :      0.083u      0.000s      0.046w      1 calls
HF: Form G                          :      0.117u      0.017s      0.073w     15 calls
JK: D                               :      0.000u      0.000s      0.000w     15 calls
JK: USO2AO                          :      0.000u      0.000s      0.000w     15 calls
JK: JK                              :      0.117u      0.017s      0.072w     15 calls
PK computes JK                      :      0.117u      0.017s      0.072w     15 calls
JK: AO2USO                          :      0.000u      0.000s      0.001w     15 calls
HF: Form F                          :      0.000u      0.000s      0.000w     15 calls
HF: DIIS                            :      0.000u      0.000s      0.000w     15 calls
HF: Form C                          :      0.000u      0.000s      0.002w     15 calls
HF: Form D                          :      0.000u      0.000s      0.000w     15 calls

-----------------------------------------------------------
Total PK formation time             :      0.383u      0.033s      0.244w      1 calls
HF: Form H                          :      0.000u      0.000s      0.001w      1 calls
HF: Form S/X                        :      0.000u      0.000s      0.000w      1 calls
HF: Guess                           :      0.083u      0.000s      0.047w      1 calls
| SAD Guess                         :      0.083u      0.000s      0.046w      1 calls
HF: Form G                          :      0.117u      0.017s      0.073w     15 calls
| JK: D                             :      0.000u      0.000s      0.000w     15 calls
| JK: USO2AO                        :      0.000u      0.000s      0.000w     15 calls
| JK: JK                            :      0.117u      0.017s      0.072w     15 calls
| | PK computes JK                  :      0.117u      0.017s      0.072w     15 calls
| JK: AO2USO                        :      0.000u      0.000s      0.001w     15 calls
HF: Form F                          :      0.000u      0.000s      0.000w     15 calls
HF: DIIS                            :      0.000u      0.000s      0.000w     15 calls
HF: Form C                          :      0.000u      0.000s      0.002w     15 calls
HF: Form D                          :      0.000u      0.000s      0.000w     15 calls

***********************************************************

Host: elizabeth

Timers On : Thu Aug  2 17:28:18 2018
Timers Off: Thu Aug  2 17:28:18 2018

Wall Time:        0.35 seconds


-----------------------------------------------------------

***********************************************************

Host: elizabeth

Timers On : Thu Aug  2 17:28:28 2018
Timers Off: Thu Aug  2 17:28:29 2018

Wall Time:        0.35 seconds


-----------------------------------------------------------

***********************************************************

Host: elizabeth

Timers On : Thu Aug  2 17:28:38 2018
Timers Off: Thu Aug  2 17:28:39 2018

Wall Time:        0.88 seconds

Total PK formation time             :      0.383u      0.017s      0.251w      1 calls
HF: Form H                          :      0.017u      0.017s      0.001w      1 calls
HF: Form S/X                        :      0.000u      0.000s      0.000w      1 calls
HF: Guess                           :      0.000u      0.000s      0.000w      1 calls
HF: Form G                          :      0.267u      0.000s      0.159w     32 calls
JK: D                               :      0.000u      0.000s      0.000w     32 calls
JK: USO2AO                          :      0.000u      0.000s      0.001w     32 calls
JK: JK                              :      0.267u      0.000s      0.155w     32 calls
PK computes JK                      :      0.267u      0.000s      0.155w     32 calls
JK: AO2USO                          :      0.000u      0.000s      0.002w     32 calls
HF: Form F                          :      0.000u      0.000s      0.000w     32 calls
HF: DIIS                            :      0.000u      0.000s      0.001w     32 calls
HF: Form C                          :      0.000u      0.000s      0.005w     32 calls
HF: Form D                          :      0.000u      0.000s      0.000w     32 calls

-----------------------------------------------------------
Total PK formation time             :      0.383u      0.017s      0.251w      1 calls
HF: Form H                          :      0.017u      0.017s      0.001w      1 calls
HF: Form S/X                        :      0.000u      0.000s      0.000w      1 calls
HF: Guess                           :      0.000u      0.000s      0.000w      1 calls
HF: Form G                          :      0.267u      0.000s      0.159w     32 calls
| JK: D                             :      0.000u      0.000s      0.000w     32 calls
| JK: USO2AO                        :      0.000u      0.000s      0.001w     32 calls
| JK: JK                            :      0.267u      0.000s      0.155w     32 calls
| | PK computes JK                  :      0.267u      0.000s      0.155w     32 calls
| JK: AO2USO                        :      0.000u      0.000s      0.002w     32 calls
HF: Form F                          :      0.000u      0.000s      0.000w     32 calls
HF: DIIS                            :      0.000u      0.000s      0.001w     32 calls
HF: Form C                          :      0.000u      0.000s      0.005w     32 calls
HF: Form D                          :      0.000u      0.000s      0.000w     32 calls

***********************************************************

Host: elizabeth

Timers On : Thu Aug  2 17:29:11 2018
Timers Off: Thu Aug  2 17:32:41 2018

Wall Time:      209.71 seconds


-----------------------------------------------------------

***********************************************************

Host: elizabeth

Timers On : Thu Aug  2 17:34:46 2018
Timers Off: Thu Aug  2 17:34:47 2018

Wall Time:        0.79 seconds

Total PK formation time             :      0.400u      0.017s      0.246w      1 calls
HF: Form H                          :      0.000u      0.000s      0.001w      1 calls
HF: Form S/X                        :      0.000u      0.000s      0.000w      1 calls
HF: Guess                           :      0.000u      0.000s      0.000w      1 calls
HF: Form G                          :      0.083u      0.000s      0.055w     11 calls
JK: D                               :      0.000u      0.000s      0.000w     11 calls
JK: USO2AO                          :      0.000u      0.000s      0.000w     11 calls
JK: JK                              :      0.083u      0.000s      0.054w     11 calls
PK computes JK                      :      0.083u      0.000s      0.054w     11 calls
JK: AO2USO                          :      0.000u      0.000s      0.001w     11 calls
HF: Form F                          :      0.000u      0.000s      0.000w     11 calls
HF: DIIS                            :      0.000u      0.000s      0.002w     11 calls
DIISManager::add_entry              :      0.000u      0.000s      0.001w     11 calls
DIISManager::extrapolate            :      0.000u      0.000s      0.001w     10 calls
bMatrix setup                       :      0.000u      0.000s      0.000w     10 calls
bMatrix pseudoinverse               :      0.000u      0.000s      0.000w     10 calls
New vector                          :      0.000u      0.000s      0.000w     10 calls
HF: Form C                          :      0.000u      0.000s      0.002w     11 calls
HF: Form D                          :      0.000u      0.000s      0.000w     11 calls

-----------------------------------------------------------
Total PK formation time             :      0.400u      0.017s      0.246w      1 calls
HF: Form H                          :      0.000u      0.000s      0.001w      1 calls
HF: Form S/X                        :      0.000u      0.000s      0.000w      1 calls
HF: Guess                           :      0.000u      0.000s      0.000w      1 calls
HF: Form G                          :      0.083u      0.000s      0.055w     11 calls
| JK: D                             :      0.000u      0.000s      0.000w     11 calls
| JK: USO2AO                        :      0.000u      0.000s      0.000w     11 calls
| JK: JK                            :      0.083u      0.000s      0.054w     11 calls
| | PK computes JK                  :      0.083u      0.000s      0.054w     11 calls
| JK: AO2USO                        :      0.000u      0.000s      0.001w     11 calls
HF: Form F                          :      0.000u      0.000s      0.000w     11 calls
HF: DIIS                            :      0.000u      0.000s      0.002w     11 calls
| DIISManager::add_entry            :      0.000u      0.000s      0.001w     11 calls
| DIISManager::extrapolate          :      0.000u      0.000s      0.001w     10 calls
| | bMatrix setup                   :      0.000u      0.000s      0.000w     10 calls
| | bMatrix pseudoinverse           :      0.000u      0.000s      0.000w     10 calls
| | New vector                      :      0.000u      0.000s      0.000w     10 calls
HF: Form C                          :      0.000u      0.000s      0.002w     11 calls
HF: Form D                          :      0.000u      0.000s      0.000w     11 calls

***********************************************************

Host: elizabeth

Timers On : Thu Aug  2 17:35:35 2018
Timers Off: Thu Aug  2 17:37:28 2018

Wall Time:      113.01 seconds


-----------------------------------------------------------

***********************************************************

Host: elizabeth

Timers On : Thu Aug  2 17:39:49 2018
Timers Off: Thu Aug  2 17:39:49 2018

Wall Time:        0.33 seconds


-----------------------------------------------------------

***********************************************************

Host: elizabeth

Timers On : Thu Aug  2 17:51:31 2018
Timers Off: Thu Aug  2 17:51:37 2018

Wall Time:        5.73 seconds

Total PK formation time             :      2.400u      0.083s      1.504w      1 calls
HF: Form H                          :      0.000u      0.000s      0.027w      1 calls
HF: Form S/X                        :      0.000u      0.000s      0.003w      1 calls
HF: Guess                           :      0.000u      0.000s      0.001w      1 calls
HF: Form G                          :      5.733u      0.017s      3.457w    100 calls
JK: D                               :      0.000u      0.000s      0.002w    100 calls
JK: USO2AO                          :      0.000u      0.000s      0.001w    100 calls
JK: JK                              :      5.733u      0.017s      3.448w    100 calls
PK computes JK                      :      5.733u      0.017s      3.448w    100 calls
JK: AO2USO                          :      0.000u      0.000s      0.000w    100 calls
HF: Form F                          :      0.000u      0.000s      0.003w    100 calls
HF: DIIS                            :      0.017u      0.000s      0.028w    100 calls
HF: Form C                          :      0.283u      0.000s      0.119w    100 calls
HF: Form D                          :      0.000u      0.000s      0.002w    100 calls

-----------------------------------------------------------
Total PK formation time             :      2.400u      0.083s      1.504w      1 calls
HF: Form H                          :      0.000u      0.000s      0.027w      1 calls
HF: Form S/X                        :      0.000u      0.000s      0.003w      1 calls
HF: Guess                           :      0.000u      0.000s      0.001w      1 calls
HF: Form G                          :      5.733u      0.017s      3.457w    100 calls
| JK: D                             :      0.000u      0.000s      0.002w    100 calls
| JK: USO2AO                        :      0.000u      0.000s      0.001w    100 calls
| JK: JK                            :      5.733u      0.017s      3.448w    100 calls
| | PK computes JK                  :      5.733u      0.017s      3.448w    100 calls
| JK: AO2USO                        :      0.000u      0.000s      0.000w    100 calls
HF: Form F                          :      0.000u      0.000s      0.003w    100 calls
HF: DIIS                            :      0.017u      0.000s      0.028w    100 calls
HF: Form C                          :      0.283u      0.000s      0.119w    100 calls
HF: Form D                          :      0.000u      0.000s      0.002w    100 calls

***********************************************************

Host: elizabeth

Timers On : Thu Aug  2 17:51:51 2018
Timers Off: Thu Aug  2 17:51:55 2018

Wall Time:        4.06 seconds

Total PK formation time             :      2.417u      0.083s      1.508w      1 calls
HF: Form H                          :      0.000u      0.000s      0.001w      1 calls
HF: Form S/X                        :      0.000u      0.000s      0.001w      1 calls
HF: Guess                           :      0.000u      0.000s      0.001w      1 calls
HF: Form G                          :      2.917u      0.017s      1.804w     55 calls
JK: D                               :      0.000u      0.000s      0.001w     55 calls
JK: USO2AO                          :      0.000u      0.000s      0.001w     55 calls
JK: JK                              :      2.917u      0.017s      1.800w     55 calls
PK computes JK                      :      2.917u      0.017s      1.800w     55 calls
JK: AO2USO                          :      0.000u      0.000s      0.000w     55 calls
HF: Form F                          :      0.000u      0.000s      0.001w     55 calls
HF: DIIS                            :      0.117u      0.000s      0.041w     55 calls
DIISManager::add_entry              :      0.017u      0.000s      0.006w     55 calls
DIISManager::extrapolate            :      0.033u      0.000s      0.021w     54 calls
bMatrix setup                       :      0.017u      0.000s      0.010w     54 calls
bMatrix pseudoinverse               :      0.017u      0.000s      0.003w     54 calls
New vector                          :      0.000u      0.000s      0.008w     54 calls
HF: Form C                          :      0.100u      0.017s      0.058w     55 calls
HF: Form D                          :      0.000u      0.000s      0.001w     55 calls

-----------------------------------------------------------
Total PK formation time             :      2.417u      0.083s      1.508w      1 calls
HF: Form H                          :      0.000u      0.000s      0.001w      1 calls
HF: Form S/X                        :      0.000u      0.000s      0.001w      1 calls
HF: Guess                           :      0.000u      0.000s      0.001w      1 calls
HF: Form G                          :      2.917u      0.017s      1.804w     55 calls
| JK: D                             :      0.000u      0.000s      0.001w     55 calls
| JK: USO2AO                        :      0.000u      0.000s      0.001w     55 calls
| JK: JK                            :      2.917u      0.017s      1.800w     55 calls
| | PK computes JK                  :      2.917u      0.017s      1.800w     55 calls
| JK: AO2USO                        :      0.000u      0.000s      0.000w     55 calls
HF: Form F                          :      0.000u      0.000s      0.001w     55 calls
HF: DIIS                            :      0.117u      0.000s      0.041w     55 calls
| DIISManager::add_entry            :      0.017u      0.000s      0.006w     55 calls
| DIISManager::extrapolate          :      0.033u      0.000s      0.021w     54 calls
| | bMatrix setup                   :      0.017u      0.000s      0.010w     54 calls
| | bMatrix pseudoinverse           :      0.017u      0.000s      0.003w     54 calls
| | New vector                      :      0.000u      0.000s      0.008w     54 calls
HF: Form C                          :      0.100u      0.017s      0.058w     55 calls
HF: Form D                          :      0.000u      0.000s      0.001w     55 calls

***********************************************************

Host: elizabeth

Timers On : Thu Aug  2 17:58:15 2018
Timers Off: Thu Aug  2 17:58:18 2018

Wall Time:        2.23 seconds

DFH: initialize()                   :      0.450u      0.000s      0.277w      1 calls
DFH: sparsity prep                  :      0.067u      0.000s      0.032w      1 calls
DFH: AO Construction                :      0.267u      0.000s      0.160w      1 calls
DFH: AO-Met. Contraction            :      0.050u      0.000s      0.040w      1 calls
HF: Form H                          :      0.000u      0.000s      0.002w      1 calls
HF: Form S/X                        :      0.000u      0.017s      0.001w      1 calls
HF: Guess                           :      0.000u      0.000s      0.001w      1 calls
HF: Form G                          :      1.733u      0.050s      1.105w    100 calls
JK: D                               :      0.000u      0.000s      0.002w    100 calls
JK: USO2AO                          :      0.000u      0.000s      0.001w    100 calls
JK: JK                              :      1.717u      0.050s      1.097w    100 calls
DFH: compute_JK()                   :      1.717u      0.050s      1.097w    100 calls
DFH: Grabbing AOs                   :      0.000u      0.000s      0.000w    100 calls
DFH: compute_J                      :      0.383u      0.050s      0.256w    100 calls
DFH: compute_K                      :      1.333u      0.000s      0.839w    100 calls
JK: AO2USO                          :      0.000u      0.000s      0.000w    100 calls
HF: Form F                          :      0.000u      0.000s      0.002w    100 calls
HF: DIIS                            :      0.100u      0.000s      0.079w    100 calls
DIISManager::add_entry              :      0.017u      0.000s      0.010w    100 calls
DIISManager::extrapolate            :      0.067u      0.000s      0.044w     99 calls
bMatrix setup                       :      0.050u      0.000s      0.022w     99 calls
bMatrix pseudoinverse               :      0.000u      0.000s      0.005w     99 calls
New vector                          :      0.017u      0.000s      0.016w     99 calls
HF: Form C                          :      0.217u      0.050s      0.108w    100 calls
HF: Form D                          :      0.017u      0.000s      0.002w    100 calls

-----------------------------------------------------------
DFH: initialize()                   :      0.450u      0.000s      0.277w      1 calls
| DFH: sparsity prep                :      0.067u      0.000s      0.032w      1 calls
| DFH: AO Construction              :      0.267u      0.000s      0.160w      1 calls
| DFH: AO-Met. Contraction          :      0.050u      0.000s      0.040w      1 calls
HF: Form H                          :      0.000u      0.000s      0.002w      1 calls
HF: Form S/X                        :      0.000u      0.017s      0.001w      1 calls
HF: Guess                           :      0.000u      0.000s      0.001w      1 calls
HF: Form G                          :      1.733u      0.050s      1.105w    100 calls
| JK: D                             :      0.000u      0.000s      0.002w    100 calls
| JK: USO2AO                        :      0.000u      0.000s      0.001w    100 calls
| JK: JK                            :      1.717u      0.050s      1.097w    100 calls
| | DFH: compute_JK()               :      1.717u      0.050s      1.097w    100 calls
| | | DFH: Grabbing AOs             :      0.000u      0.000s      0.000w    100 calls
| | | DFH: compute_J                :      0.383u      0.050s      0.256w    100 calls
| | | DFH: compute_K                :      1.333u      0.000s      0.839w    100 calls
| JK: AO2USO                        :      0.000u      0.000s      0.000w    100 calls
HF: Form F                          :      0.000u      0.000s      0.002w    100 calls
HF: DIIS                            :      0.100u      0.000s      0.079w    100 calls
| DIISManager::add_entry            :      0.017u      0.000s      0.010w    100 calls
| DIISManager::extrapolate          :      0.067u      0.000s      0.044w     99 calls
| | bMatrix setup                   :      0.050u      0.000s      0.022w     99 calls
| | bMatrix pseudoinverse           :      0.000u      0.000s      0.005w     99 calls
| | New vector                      :      0.017u      0.000s      0.016w     99 calls
HF: Form C                          :      0.217u      0.050s      0.108w    100 calls
HF: Form D                          :      0.017u      0.000s      0.002w    100 calls

***********************************************************

Host: elizabeth

Timers On : Thu Aug  2 18:00:43 2018
Timers Off: Thu Aug  2 18:00:47 2018

Wall Time:        3.80 seconds

Total PK formation time             :      2.100u      0.100s      1.317w      1 calls
HF: Form H                          :      0.000u      0.000s      0.001w      1 calls
HF: Form S/X                        :      0.000u      0.000s      0.001w      1 calls
HF: Guess                           :      0.000u      0.000s      0.001w      1 calls
HF: Form G                          :      2.917u      0.017s      1.742w     55 calls
JK: D                               :      0.000u      0.000s      0.001w     55 calls
JK: USO2AO                          :      0.000u      0.000s      0.000w     55 calls
JK: JK                              :      2.917u      0.017s      1.737w     55 calls
PK computes JK                      :      2.900u      0.017s      1.737w     55 calls
JK: AO2USO                          :      0.000u      0.000s      0.000w     55 calls
HF: Form F                          :      0.000u      0.000s      0.001w     55 calls
HF: DIIS                            :      0.050u      0.000s      0.039w     55 calls
DIISManager::add_entry              :      0.017u      0.000s      0.005w     55 calls
DIISManager::extrapolate            :      0.033u      0.000s      0.020w     54 calls
bMatrix setup                       :      0.017u      0.000s      0.010w     54 calls
bMatrix pseudoinverse               :      0.017u      0.000s      0.003w     54 calls
New vector                          :      0.000u      0.000s      0.007w     54 calls
HF: Form C                          :      0.083u      0.000s      0.057w     55 calls
HF: Form D                          :      0.000u      0.000s      0.001w     55 calls

-----------------------------------------------------------
Total PK formation time             :      2.100u      0.100s      1.317w      1 calls
HF: Form H                          :      0.000u      0.000s      0.001w      1 calls
HF: Form S/X                        :      0.000u      0.000s      0.001w      1 calls
HF: Guess                           :      0.000u      0.000s      0.001w      1 calls
HF: Form G                          :      2.917u      0.017s      1.742w     55 calls
| JK: D                             :      0.000u      0.000s      0.001w     55 calls
| JK: USO2AO                        :      0.000u      0.000s      0.000w     55 calls
| JK: JK                            :      2.917u      0.017s      1.737w     55 calls
| | PK computes JK                  :      2.900u      0.017s      1.737w     55 calls
| JK: AO2USO                        :      0.000u      0.000s      0.000w     55 calls
HF: Form F                          :      0.000u      0.000s      0.001w     55 calls
HF: DIIS                            :      0.050u      0.000s      0.039w     55 calls
| DIISManager::add_entry            :      0.017u      0.000s      0.005w     55 calls
| DIISManager::extrapolate          :      0.033u      0.000s      0.020w     54 calls
| | bMatrix setup                   :      0.017u      0.000s      0.010w     54 calls
| | bMatrix pseudoinverse           :      0.017u      0.000s      0.003w     54 calls
| | New vector                      :      0.000u      0.000s      0.007w     54 calls
HF: Form C                          :      0.083u      0.000s      0.057w     55 calls
HF: Form D                          :      0.000u      0.000s      0.001w     55 calls

***********************************************************

Host: elizabeth

Timers On : Thu Aug  2 17:40:06 2018
Timers Off: Thu Aug  2 18:14:29 2018

Wall Time:     2062.96 seconds


-----------------------------------------------------------

***********************************************************

Host: elizabeth

Timers On : Thu Aug  2 18:24:53 2018
Timers Off: Thu Aug  2 18:27:12 2018

Wall Time:      139.32 seconds


-----------------------------------------------------------

***********************************************************

Host: elizabeth

Timers On : Thu Aug  2 18:28:06 2018
Timers Off: Thu Aug  2 18:29:01 2018

Wall Time:       55.65 seconds


-----------------------------------------------------------

***********************************************************

Host: elizabeth

Timers On : Thu Aug  2 18:29:28 2018
Timers Off: Thu Aug  2 18:29:29 2018

Wall Time:        0.37 seconds


-----------------------------------------------------------

***********************************************************

Host: elizabeth

Timers On : Thu Aug  2 18:29:39 2018
Timers Off: Thu Aug  2 18:29:49 2018

Wall Time:       10.82 seconds

Total PK formation time             :      1.783u      0.100s      1.128w      1 calls
HF: Form H                          :      0.000u      0.000s      0.002w      1 calls
HF: Form S/X                        :      0.000u      0.000s      0.001w      1 calls
HF: Guess                           :      0.000u      0.000s      0.001w      1 calls
HF: Form G                          :      2.717u      0.000s      1.579w     55 calls
JK: D                               :      0.000u      0.000s      0.001w     55 calls
JK: USO2AO                          :      0.000u      0.000s      0.000w     55 calls
JK: JK                              :      2.700u      0.000s      1.576w     55 calls
PK computes JK                      :      2.700u      0.000s      1.576w     55 calls
JK: AO2USO                          :      0.000u      0.000s      0.000w     55 calls
HF: Form F                          :      0.000u      0.000s      0.001w     55 calls
HF: DIIS                            :      0.017u      0.017s      0.035w     55 calls
DIISManager::add_entry              :      0.000u      0.000s      0.004w     55 calls
DIISManager::extrapolate            :      0.017u      0.017s      0.018w     54 calls
bMatrix setup                       :      0.017u      0.017s      0.009w     54 calls
bMatrix pseudoinverse               :      0.000u      0.000s      0.002w     54 calls
New vector                          :      0.000u      0.000s      0.007w     54 calls
HF: Form C                          :      0.033u      0.000s      0.050w     55 calls
HF: Form D                          :      0.000u      0.000s      0.001w     55 calls

-----------------------------------------------------------
Total PK formation time             :      1.783u      0.100s      1.128w      1 calls
HF: Form H                          :      0.000u      0.000s      0.002w      1 calls
HF: Form S/X                        :      0.000u      0.000s      0.001w      1 calls
HF: Guess                           :      0.000u      0.000s      0.001w      1 calls
HF: Form G                          :      2.717u      0.000s      1.579w     55 calls
| JK: D                             :      0.000u      0.000s      0.001w     55 calls
| JK: USO2AO                        :      0.000u      0.000s      0.000w     55 calls
| JK: JK                            :      2.700u      0.000s      1.576w     55 calls
| | PK computes JK                  :      2.700u      0.000s      1.576w     55 calls
| JK: AO2USO                        :      0.000u      0.000s      0.000w     55 calls
HF: Form F                          :      0.000u      0.000s      0.001w     55 calls
HF: DIIS                            :      0.017u      0.017s      0.035w     55 calls
| DIISManager::add_entry            :      0.000u      0.000s      0.004w     55 calls
| DIISManager::extrapolate          :      0.017u      0.017s      0.018w     54 calls
| | bMatrix setup                   :      0.017u      0.017s      0.009w     54 calls
| | bMatrix pseudoinverse           :      0.000u      0.000s      0.002w     54 calls
| | New vector                      :      0.000u      0.000s      0.007w     54 calls
HF: Form C                          :      0.033u      0.000s      0.050w     55 calls
HF: Form D                          :      0.000u      0.000s      0.001w     55 calls

***********************************************************

Host: elizabeth

Timers On : Thu Aug  2 18:30:20 2018
Timers Off: Thu Aug  2 18:30:36 2018

Wall Time:       15.29 seconds

Total PK formation time             :      1.783u      0.117s      1.138w      1 calls
HF: Form H                          :      0.000u      0.000s      0.002w      1 calls
HF: Form S/X                        :      0.000u      0.000s      0.001w      1 calls
HF: Guess                           :      0.000u      0.000s      0.001w      1 calls
HF: Form G                          :     10.217u      0.067s      6.101w    100 calls
JK: D                               :      0.017u      0.000s      0.003w    100 calls
JK: USO2AO                          :      0.000u      0.000s      0.002w    100 calls
JK: JK                              :     10.200u      0.067s      6.089w    100 calls
PK computes JK                      :     10.200u      0.067s      6.089w    100 calls
JK: AO2USO                          :      0.000u      0.000s      0.000w    100 calls
HF: Form F                          :      0.033u      0.000s      0.032w    100 calls
HF: DIIS                            :      0.067u      0.000s      0.072w    100 calls
DIISManager::add_entry              :      0.000u      0.000s      0.024w    100 calls
DIISManager::extrapolate            :      0.050u      0.000s      0.040w     99 calls
bMatrix setup                       :      0.017u      0.000s      0.020w     99 calls
bMatrix pseudoinverse               :      0.000u      0.000s      0.005w     99 calls
New vector                          :      0.033u      0.000s      0.014w     99 calls
HF: Form C                          :      0.067u      0.033s      0.087w    100 calls
HF: Form D                          :      0.000u      0.000s      0.003w    100 calls

-----------------------------------------------------------
Total PK formation time             :      1.783u      0.117s      1.138w      1 calls
HF: Form H                          :      0.000u      0.000s      0.002w      1 calls
HF: Form S/X                        :      0.000u      0.000s      0.001w      1 calls
HF: Guess                           :      0.000u      0.000s      0.001w      1 calls
HF: Form G                          :     10.217u      0.067s      6.101w    100 calls
| JK: D                             :      0.017u      0.000s      0.003w    100 calls
| JK: USO2AO                        :      0.000u      0.000s      0.002w    100 calls
| JK: JK                            :     10.200u      0.067s      6.089w    100 calls
| | PK computes JK                  :     10.200u      0.067s      6.089w    100 calls
| JK: AO2USO                        :      0.000u      0.000s      0.000w    100 calls
HF: Form F                          :      0.033u      0.000s      0.032w    100 calls
HF: DIIS                            :      0.067u      0.000s      0.072w    100 calls
| DIISManager::add_entry            :      0.000u      0.000s      0.024w    100 calls
| DIISManager::extrapolate          :      0.050u      0.000s      0.040w     99 calls
| | bMatrix setup                   :      0.017u      0.000s      0.020w     99 calls
| | bMatrix pseudoinverse           :      0.000u      0.000s      0.005w     99 calls
| | New vector                      :      0.033u      0.000s      0.014w     99 calls
HF: Form C                          :      0.067u      0.033s      0.087w    100 calls
HF: Form D                          :      0.000u      0.000s      0.003w    100 calls

***********************************************************

Host: elizabeth

Timers On : Thu Aug  2 18:34:15 2018
Timers Off: Thu Aug  2 18:36:27 2018

Wall Time:      132.20 seconds


-----------------------------------------------------------

***********************************************************

Host: elizabeth

Timers On : Thu Aug  2 18:37:28 2018
Timers Off: Thu Aug  2 18:37:29 2018

Wall Time:        0.67 seconds

Total PK formation time             :      0.150u      0.000s      0.094w      1 calls
HF: Form H                          :      0.000u      0.000s      0.001w      1 calls
HF: Form S/X                        :      0.000u      0.000s      0.000w      1 calls
HF: Guess                           :      0.000u      0.000s      0.000w      1 calls
HF: Form G                          :      0.050u      0.000s      0.025w      9 calls
JK: D                               :      0.000u      0.000s      0.000w      9 calls
JK: USO2AO                          :      0.000u      0.000s      0.000w      9 calls
JK: JK                              :      0.050u      0.000s      0.024w      9 calls
PK computes JK                      :      0.050u      0.000s      0.024w      9 calls
JK: AO2USO                          :      0.000u      0.000s      0.001w      9 calls
HF: Form F                          :      0.000u      0.000s      0.000w      9 calls
HF: DIIS                            :      0.000u      0.000s      0.001w      9 calls
DIISManager::add_entry              :      0.000u      0.000s      0.000w      9 calls
DIISManager::extrapolate            :      0.000u      0.000s      0.001w      8 calls
bMatrix setup                       :      0.000u      0.000s      0.000w      8 calls
bMatrix pseudoinverse               :      0.000u      0.000s      0.000w      8 calls
New vector                          :      0.000u      0.000s      0.000w      8 calls
HF: Form C                          :      0.000u      0.000s      0.001w      9 calls
HF: Form D                          :      0.000u      0.000s      0.000w      9 calls

-----------------------------------------------------------
Total PK formation time             :      0.150u      0.000s      0.094w      1 calls
HF: Form H                          :      0.000u      0.000s      0.001w      1 calls
HF: Form S/X                        :      0.000u      0.000s      0.000w      1 calls
HF: Guess                           :      0.000u      0.000s      0.000w      1 calls
HF: Form G                          :      0.050u      0.000s      0.025w      9 calls
| JK: D                             :      0.000u      0.000s      0.000w      9 calls
| JK: USO2AO                        :      0.000u      0.000s      0.000w      9 calls
| JK: JK                            :      0.050u      0.000s      0.024w      9 calls
| | PK computes JK                  :      0.050u      0.000s      0.024w      9 calls
| JK: AO2USO                        :      0.000u      0.000s      0.001w      9 calls
HF: Form F                          :      0.000u      0.000s      0.000w      9 calls
HF: DIIS                            :      0.000u      0.000s      0.001w      9 calls
| DIISManager::add_entry            :      0.000u      0.000s      0.000w      9 calls
| DIISManager::extrapolate          :      0.000u      0.000s      0.001w      8 calls
| | bMatrix setup                   :      0.000u      0.000s      0.000w      8 calls
| | bMatrix pseudoinverse           :      0.000u      0.000s      0.000w      8 calls
| | New vector                      :      0.000u      0.000s      0.000w      8 calls
HF: Form C                          :      0.000u      0.000s      0.001w      9 calls
HF: Form D                          :      0.000u      0.000s      0.000w      9 calls

***********************************************************

Host: elizabeth

Timers On : Thu Aug  2 18:37:57 2018
Timers Off: Thu Aug  2 18:37:58 2018

Wall Time:        0.70 seconds

Total PK formation time             :      0.183u      0.000s      0.116w      1 calls
HF: Form H                          :      0.000u      0.000s      0.001w      1 calls
HF: Form S/X                        :      0.000u      0.000s      0.000w      1 calls
HF: Guess                           :      0.000u      0.017s      0.000w      1 calls
HF: Form G                          :      0.017u      0.000s      0.013w      9 calls
JK: D                               :      0.000u      0.000s      0.000w      9 calls
JK: USO2AO                          :      0.000u      0.000s      0.000w      9 calls
JK: JK                              :      0.017u      0.000s      0.013w      9 calls
PK computes JK                      :      0.017u      0.000s      0.013w      9 calls
JK: AO2USO                          :      0.000u      0.000s      0.000w      9 calls
HF: Form F                          :      0.000u      0.000s      0.000w      9 calls
HF: DIIS                            :      0.000u      0.000s      0.001w      9 calls
DIISManager::add_entry              :      0.000u      0.000s      0.000w      9 calls
DIISManager::extrapolate            :      0.000u      0.000s      0.000w      8 calls
bMatrix setup                       :      0.000u      0.000s      0.000w      8 calls
bMatrix pseudoinverse               :      0.000u      0.000s      0.000w      8 calls
New vector                          :      0.000u      0.000s      0.000w      8 calls
HF: Form C                          :      0.000u      0.000s      0.001w      9 calls
HF: Form D                          :      0.000u      0.000s      0.000w      9 calls

-----------------------------------------------------------
Total PK formation time             :      0.183u      0.000s      0.116w      1 calls
HF: Form H                          :      0.000u      0.000s      0.001w      1 calls
HF: Form S/X                        :      0.000u      0.000s      0.000w      1 calls
HF: Guess                           :      0.000u      0.017s      0.000w      1 calls
HF: Form G                          :      0.017u      0.000s      0.013w      9 calls
| JK: D                             :      0.000u      0.000s      0.000w      9 calls
| JK: USO2AO                        :      0.000u      0.000s      0.000w      9 calls
| JK: JK                            :      0.017u      0.000s      0.013w      9 calls
| | PK computes JK                  :      0.017u      0.000s      0.013w      9 calls
| JK: AO2USO                        :      0.000u      0.000s      0.000w      9 calls
HF: Form F                          :      0.000u      0.000s      0.000w      9 calls
HF: DIIS                            :      0.000u      0.000s      0.001w      9 calls
| DIISManager::add_entry            :      0.000u      0.000s      0.000w      9 calls
| DIISManager::extrapolate          :      0.000u      0.000s      0.000w      8 calls
| | bMatrix setup                   :      0.000u      0.000s      0.000w      8 calls
| | bMatrix pseudoinverse           :      0.000u      0.000s      0.000w      8 calls
| | New vector                      :      0.000u      0.000s      0.000w      8 calls
HF: Form C                          :      0.000u      0.000s      0.001w      9 calls
HF: Form D                          :      0.000u      0.000s      0.000w      9 calls

***********************************************************

Host: elizabeth

Timers On : Thu Aug  2 18:38:17 2018
Timers Off: Thu Aug  2 18:38:23 2018

Wall Time:        6.58 seconds


-----------------------------------------------------------

***********************************************************

Host: elizabeth

Timers On : Thu Aug  2 18:39:02 2018
Timers Off: Thu Aug  2 18:39:32 2018

Wall Time:       30.11 seconds


-----------------------------------------------------------

***********************************************************

Host: elizabeth

Timers On : Thu Aug  2 18:40:39 2018
Timers Off: Thu Aug  2 18:40:40 2018

Wall Time:        0.68 seconds

Total PK formation time             :      0.167u      0.017s      0.100w      1 calls
HF: Form H                          :      0.000u      0.000s      0.001w      1 calls
HF: Form S/X                        :      0.000u      0.000s      0.000w      1 calls
HF: Guess                           :      0.000u      0.000s      0.000w      1 calls
HF: Form G                          :      0.017u      0.000s      0.010w      7 calls
JK: D                               :      0.000u      0.000s      0.000w      7 calls
JK: USO2AO                          :      0.000u      0.000s      0.000w      7 calls
JK: JK                              :      0.017u      0.000s      0.009w      7 calls
PK computes JK                      :      0.017u      0.000s      0.009w      7 calls
JK: AO2USO                          :      0.000u      0.000s      0.000w      7 calls
HF: Form F                          :      0.000u      0.000s      0.000w      7 calls
HF: DIIS                            :      0.000u      0.000s      0.001w      7 calls
DIISManager::add_entry              :      0.000u      0.000s      0.000w      7 calls
DIISManager::extrapolate            :      0.000u      0.000s      0.000w      6 calls
bMatrix setup                       :      0.000u      0.000s      0.000w      6 calls
bMatrix pseudoinverse               :      0.000u      0.000s      0.000w      6 calls
New vector                          :      0.000u      0.000s      0.000w      6 calls
HF: Form C                          :      0.000u      0.000s      0.000w      7 calls
HF: Form D                          :      0.000u      0.000s      0.000w      7 calls

-----------------------------------------------------------
Total PK formation time             :      0.167u      0.017s      0.100w      1 calls
HF: Form H                          :      0.000u      0.000s      0.001w      1 calls
HF: Form S/X                        :      0.000u      0.000s      0.000w      1 calls
HF: Guess                           :      0.000u      0.000s      0.000w      1 calls
HF: Form G                          :      0.017u      0.000s      0.010w      7 calls
| JK: D                             :      0.000u      0.000s      0.000w      7 calls
| JK: USO2AO                        :      0.000u      0.000s      0.000w      7 calls
| JK: JK                            :      0.017u      0.000s      0.009w      7 calls
| | PK computes JK                  :      0.017u      0.000s      0.009w      7 calls
| JK: AO2USO                        :      0.000u      0.000s      0.000w      7 calls
HF: Form F                          :      0.000u      0.000s      0.000w      7 calls
HF: DIIS                            :      0.000u      0.000s      0.001w      7 calls
| DIISManager::add_entry            :      0.000u      0.000s      0.000w      7 calls
| DIISManager::extrapolate          :      0.000u      0.000s      0.000w      6 calls
| | bMatrix setup                   :      0.000u      0.000s      0.000w      6 calls
| | bMatrix pseudoinverse           :      0.000u      0.000s      0.000w      6 calls
| | New vector                      :      0.000u      0.000s      0.000w      6 calls
HF: Form C                          :      0.000u      0.000s      0.000w      7 calls
HF: Form D                          :      0.000u      0.000s      0.000w      7 calls

***********************************************************

Host: elizabeth

Timers On : Thu Aug  2 18:40:59 2018
Timers Off: Thu Aug  2 18:40:59 2018

Wall Time:        0.65 seconds

Total PK formation time             :      0.150u      0.000s      0.089w      1 calls
HF: Form H                          :      0.000u      0.000s      0.001w      1 calls
HF: Form S/X                        :      0.000u      0.000s      0.000w      1 calls
HF: Guess                           :      0.000u      0.000s      0.000w      1 calls
HF: Form G                          :      0.033u      0.017s      0.021w     12 calls
JK: D                               :      0.000u      0.000s      0.000w     12 calls
JK: USO2AO                          :      0.000u      0.000s      0.000w     12 calls
JK: JK                              :      0.033u      0.017s      0.020w     12 calls
PK computes JK                      :      0.033u      0.017s      0.020w     12 calls
JK: AO2USO                          :      0.000u      0.000s      0.000w     12 calls
HF: Form F                          :      0.000u      0.000s      0.000w     12 calls
HF: DIIS                            :      0.000u      0.000s      0.000w     12 calls
HF: Form C                          :      0.000u      0.000s      0.001w     12 calls
HF: Form D                          :      0.000u      0.000s      0.000w     12 calls

-----------------------------------------------------------
Total PK formation time             :      0.150u      0.000s      0.089w      1 calls
HF: Form H                          :      0.000u      0.000s      0.001w      1 calls
HF: Form S/X                        :      0.000u      0.000s      0.000w      1 calls
HF: Guess                           :      0.000u      0.000s      0.000w      1 calls
HF: Form G                          :      0.033u      0.017s      0.021w     12 calls
| JK: D                             :      0.000u      0.000s      0.000w     12 calls
| JK: USO2AO                        :      0.000u      0.000s      0.000w     12 calls
| JK: JK                            :      0.033u      0.017s      0.020w     12 calls
| | PK computes JK                  :      0.033u      0.017s      0.020w     12 calls
| JK: AO2USO                        :      0.000u      0.000s      0.000w     12 calls
HF: Form F                          :      0.000u      0.000s      0.000w     12 calls
HF: DIIS                            :      0.000u      0.000s      0.000w     12 calls
HF: Form C                          :      0.000u      0.000s      0.001w     12 calls
HF: Form D                          :      0.000u      0.000s      0.000w     12 calls

***********************************************************
