
    -----------------------------------------------------------------------
          Psi4: An Open-Source Ab Initio Electronic Structure Package
                               Psi4 1.2.1 release

                         Git: Rev {HEAD} 406f4de 


    R. M. Parrish, L. A. Burns, D. G. A. Smith, A. C. Simmonett,
    A. E. DePrince III, E. G. Hohenstein, U. Bozkaya, A. Yu. Sokolov,
    R. Di Remigio, R. M. Richard, J. F. Gonthier, A. M. James,
    H. R. McAlexander, A. Kumar, M. Saitow, X. Wang, B. P. Pritchard,
    P. Verma, H. F. Schaefer III, K. Patkowski, R. A. King, E. F. Valeev,
    F. A. Evangelista, J. M. Turney, T. D. Crawford, and C. D. Sherrill,
    J. Chem. Theory Comput. 13(7) pp 3185--3197 (2017).
    (doi: 10.1021/acs.jctc.7b00174)


                         Additional Contributions by
    P. Kraus, H. Kruse, M. H. Lechner, M. C. Schieber, and R. A. Shaw

    -----------------------------------------------------------------------


    Psi4 started on: Sunday, 12 August 2018 05:58PM

    Process ID: 28623
    Host:       ccqc-bullpen1
    PSIDATADIR: /home/mmd01986/anaconda3/envs/psi4/share/psi4
    Memory:     500.0 MiB
    Threads:    1
    
  ==> Input File <==

--------------------------------------------------------------------------
memory 2 GB

molecule h2o {
0 1
O
H 1 1.1
H 1 1.1 2 104
}

set basis aug-cc-pvdz
set scf {
    e_convergence 1e-12
    d_convergence 1e-10
    scf_type pk
}

energy('scf')
--------------------------------------------------------------------------

  Memory set to   1.863 GiB by Python driver.

*** tstart() called on ccqc-bullpen1
*** at Sun Aug 12 17:58:12 2018

   => Loading Basis Set <=

    Name: AUG-CC-PVDZ
    Role: ORBITAL
    Keyword: BASIS
    atoms 1   entry O          line   250 file /home/mmd01986/anaconda3/envs/psi4/share/psi4/basis/aug-cc-pvdz.gbs 
    atoms 2-3 entry H          line    36 file /home/mmd01986/anaconda3/envs/psi4/share/psi4/basis/aug-cc-pvdz.gbs 


         ---------------------------------------------------------
                                   SCF
            by Justin Turney, Rob Parrish, Andy Simmonett
                             and Daniel Smith
                              RHF Reference
                        1 Threads,   1907 MiB Core
         ---------------------------------------------------------

  ==> Geometry <==

    Molecular point group: c2v
    Full point group: C2v

    Geometry (in Angstrom), charge = 0, multiplicity = 1:

       Center              X                  Y                   Z               Mass       
    ------------   -----------------  -----------------  -----------------  -----------------
         O            0.000000000000     0.000000000000    -0.075791843589    15.994914619560
         H            0.000000000000    -0.866811828967     0.601435779270     1.007825032070
         H            0.000000000000     0.866811828967     0.601435779270     1.007825032070

  Running in c2v symmetry.

  Rotational constants: A =     20.53324  B =     11.13094  C =      7.21807 [cm^-1]
  Rotational constants: A = 615570.97611  B = 333697.07564  C = 216392.23421 [MHz]
  Nuclear repulsion =    8.002366450719078

  Charge       = 0
  Multiplicity = 1
  Electrons    = 10
  Nalpha       = 5
  Nbeta        = 5

  ==> Algorithm <==

  SCF Algorithm Type is PK.
  DIIS enabled.
  MOM disabled.
  Fractional occupation disabled.
  Guess Type is SAD.
  Energy threshold   = 1.00e-12
  Density threshold  = 1.00e-10
  Integral threshold = 0.00e+00

  ==> Primary Basis <==

  Basis Set: AUG-CC-PVDZ
    Blend: AUG-CC-PVDZ
    Number of shells: 19
    Number of basis function: 41
    Number of Cartesian functions: 43
    Spherical Harmonics?: true
    Max angular momentum: 2

   => Loading Basis Set <=

    Name: (AUG-CC-PVDZ AUX)
    Role: JKFIT
    Keyword: DF_BASIS_SCF
    atoms 1   entry O          line   270 file /home/mmd01986/anaconda3/envs/psi4/share/psi4/basis/aug-cc-pvdz-jkfit.gbs 
    atoms 2-3 entry H          line    70 file /home/mmd01986/anaconda3/envs/psi4/share/psi4/basis/aug-cc-pvdz-jkfit.gbs 

  ==> Pre-Iterations <==

   -------------------------------------------------------
    Irrep   Nso     Nmo     Nalpha   Nbeta   Ndocc  Nsocc
   -------------------------------------------------------
     A1        18      18       0       0       0       0
     A2         4       4       0       0       0       0
     B1         7       7       0       0       0       0
     B2        12      12       0       0       0       0
   -------------------------------------------------------
    Total      41      41       5       5       5       0
   -------------------------------------------------------

  ==> Integral Setup <==

  Using in-core PK algorithm.
   Calculation information:
      Number of atoms:                   3
      Number of AO shells:              19
      Number of primitives:             39
      Number of atomic orbitals:        43
      Number of basis functions:        41

      Integral cutoff                 1.00e-12
      Number of threads:                 1

  Performing in-core PK
  Using 742182 doubles for integral storage.
  We computed 18145 shell quartets total.
  Whereas there are 18145 unique shell quartets.

  ==> DiskJK: Disk-Based J/K Matrices <==

    J tasked:                  Yes
    K tasked:                  Yes
    wK tasked:                  No
    Memory (MB):              1430
    Schwarz Cutoff:          1E-12

    OpenMP threads:              1

  Minimum eigenvalue in the overlap matrix is 3.7713258631E-03.
  Using Symmetric Orthogonalization.

  SCF Guess: Superposition of Atomic Densities via on-the-fly atomic UHF.

  ==> Iterations <==

                        Total Energy        Delta E     RMS |[F,P]|

   @RHF iter   0:   -75.75665769363651   -7.57567e+01   5.56746e-02 
   @RHF iter   1:   -75.96065639139995   -2.03999e-01   1.23353e-02 
   @RHF iter   2:   -75.98835860917677   -2.77022e-02   8.28446e-03 DIIS
   @RHF iter   3:   -76.00217717330911   -1.38186e-02   1.25594e-03 DIIS
   @RHF iter   4:   -76.00315031034106   -9.73137e-04   4.62718e-04 DIIS
   @RHF iter   5:   -76.00334174448962   -1.91434e-04   1.05692e-04 DIIS
   @RHF iter   6:   -76.00335382299654   -1.20785e-05   1.45160e-05 DIIS
   @RHF iter   7:   -76.00335401927819   -1.96282e-07   2.10849e-06 DIIS
   @RHF iter   8:   -76.00335402307428   -3.79609e-09   5.12631e-07 DIIS
   @RHF iter   9:   -76.00335402329868   -2.24404e-10   9.74944e-08 DIIS
   @RHF iter  10:   -76.00335402330542   -6.73595e-12   1.09187e-08 DIIS
   @RHF iter  11:   -76.00335402330555   -1.27898e-13   1.57328e-09 DIIS
   @RHF iter  12:   -76.00335402330555    0.00000e+00   1.64180e-10 DIIS
   @RHF iter  13:   -76.00335402330548    7.10543e-14   2.79823e-11 DIIS

  ==> Post-Iterations <==

    Orbital Energies [Eh]
    ---------------------

    Doubly Occupied:                                                      

       1A1   -20.599232     2A1    -1.295405     1B2    -0.647571  
       3A1    -0.559004     1B1    -0.500316  

    Virtual:                                                              

       4A1     0.032089     2B2     0.056902     5A1     0.174756  
       2B1     0.203080     6A1     0.207626     3B2     0.233364  
       4B2     0.251123     7A1     0.317738     1A2     0.375222  
       8A1     0.383377     3B1     0.413034     5B2     0.518203  
       9A1     0.604815     6B2     0.627237     7B2     0.782526  
      10A1     0.900360     4B1     1.113155    11A1     1.121142  
       2A2     1.136099    12A1     1.251940     8B2     1.422435  
       5B1     1.439136    13A1     1.559489     9B2     1.905479  
       3A2     1.939404     6B1     2.029157    10B2     2.207447  
      14A1     2.274656    15A1     2.326652    11B2     2.678215  
      16A1     2.948876     7B1     3.666347     4A2     3.678621  
      17A1     3.679448    18A1     3.864499    12B2     4.038244  

    Final Occupation by Irrep:
             A1    A2    B1    B2 
    DOCC [     3,    0,    1,    1 ]

  Energy converged.

  @RHF Final Energy:   -76.00335402330548

   => Energetics <=

    Nuclear Repulsion Energy =              8.0023664507190784
    One-Electron Energy =                -120.8083816669400079
    Two-Electron Energy =                  36.8026611929154583
    Total Energy =                        -76.0033540233054623



Properties will be evaluated at   0.000000,   0.000000,   0.000000 [a0]

Properties computed using the SCF density matrix

  Nuclear Dipole Moment: [e a0]
     X:     0.0000      Y:     0.0000      Z:     1.1273

  Electronic Dipole Moment: [e a0]
     X:     0.0000      Y:     0.0000      Z:    -0.2978

  Dipole Moment: [e a0]
     X:     0.0000      Y:     0.0000      Z:     0.8295     Total:     0.8295

  Dipole Moment: [D]
     X:     0.0000      Y:     0.0000      Z:     2.1083     Total:     2.1083


*** tstop() called on ccqc-bullpen1 at Sun Aug 12 17:58:12 2018
Module time:
	user time   =       0.27 seconds =       0.00 minutes
	system time =       0.01 seconds =       0.00 minutes
	total time  =          0 seconds =       0.00 minutes
Total time:
	user time   =       0.27 seconds =       0.00 minutes
	system time =       0.01 seconds =       0.00 minutes
	total time  =          0 seconds =       0.00 minutes

    Psi4 stopped on: Sunday, 12 August 2018 05:58PM
    Psi4 wall time for execution: 0:00:00.30

*** Psi4 exiting successfully. Buy a developer a beer!
